

     ************************************************************************
     *************** Dalton - An Electronic Structure Program ***************
     ************************************************************************

    This is output from DALTON release Dalton2016.2 (2016)
         ( Web site: http://daltonprogram.org )

   ----------------------------------------------------------------------------

    NOTE:
     
    Dalton is an experimental code for the evaluation of molecular
    properties using (MC)SCF, DFT, CI, and CC wave functions.
    The authors accept no responsibility for the performance of
    the code or for the correctness of the results.
     
    The code (in whole or part) is provided under a licence and
    is not to be reproduced for further distribution without
    the written permission of the authors or their representatives.
     
    See the home page "http://daltonprogram.org" for further information.
     
    If results obtained with this code are published,
    the appropriate citations would be both of:
     
       K. Aidas, C. Angeli, K. L. Bak, V. Bakken, R. Bast,
       L. Boman, O. Christiansen, R. Cimiraglia, S. Coriani,
       P. Dahle, E. K. Dalskov, U. Ekstroem,
       T. Enevoldsen, J. J. Eriksen, P. Ettenhuber, B. Fernandez,
       L. Ferrighi, H. Fliegl, L. Frediani, K. Hald, A. Halkier,
       C. Haettig, H. Heiberg, T. Helgaker, A. C. Hennum,
       H. Hettema, E. Hjertenaes, S. Hoest, I.-M. Hoeyvik,
       M. F. Iozzi, B. Jansik, H. J. Aa. Jensen, D. Jonsson,
       P. Joergensen, J. Kauczor, S. Kirpekar,
       T. Kjaergaard, W. Klopper, S. Knecht, R. Kobayashi, H. Koch,
       J. Kongsted, A. Krapp, K. Kristensen, A. Ligabue,
       O. B. Lutnaes, J. I. Melo, K. V. Mikkelsen, R. H. Myhre,
       C. Neiss, C. B. Nielsen, P. Norman, J. Olsen,
       J. M. H. Olsen, A. Osted, M. J. Packer, F. Pawlowski,
       T. B. Pedersen, P. F. Provasi, S. Reine, Z. Rinkevicius,
       T. A. Ruden, K. Ruud, V. Rybkin, P. Salek, C. C. M. Samson,
       A. Sanchez de Meras, T. Saue, S. P. A. Sauer,
       B. Schimmelpfennig, K. Sneskov, A. H. Steindal,
       K. O. Sylvester-Hvid, P. R. Taylor, A. M. Teale,
       E. I. Tellgren, D. P. Tew, A. J. Thorvaldsen, L. Thoegersen,
       O. Vahtras, M. A. Watson, D. J. D. Wilson, M. Ziolkowski
       and H. Agren,
       "The Dalton quantum chemistry program system",
       WIREs Comput. Mol. Sci. 2014, 4:269–284 (doi: 10.1002/wcms.1172)
     
    and
     
       Dalton, a Molecular Electronic Structure Program,
       Release Dalton2016.2 (2016), see http://daltonprogram.org
   ----------------------------------------------------------------------------

    Authors in alphabetical order (major contribution(s) in parenthesis):

  Kestutis Aidas,           Vilnius University,           Lithuania   (QM/MM)
  Celestino Angeli,         University of Ferrara,        Italy       (NEVPT2)
  Keld L. Bak,              UNI-C,                        Denmark     (AOSOPPA, non-adiabatic coupling, magnetic properties)
  Vebjoern Bakken,          University of Oslo,           Norway      (DALTON; geometry optimizer, symmetry detection)
  Radovan Bast,             UiT The Arctic U. of Norway,  Norway      (DALTON installation and execution frameworks)
  Pablo Baudin,             University of Valencia,       Spain       (Cholesky excitation energies)
  Linus Boman,              NTNU,                         Norway      (Cholesky decomposition and subsystems)
  Ove Christiansen,         Aarhus University,            Denmark     (CC module)
  Renzo Cimiraglia,         University of Ferrara,        Italy       (NEVPT2)
  Sonia Coriani,            University of Trieste,        Italy       (CC module, MCD in RESPONS)
  Janusz Cukras,            University of Trieste,        Italy       (MChD in RESPONS)
  Paal Dahle,               University of Oslo,           Norway      (Parallelization)
  Erik K. Dalskov,          UNI-C,                        Denmark     (SOPPA)
  Thomas Enevoldsen,        Univ. of Southern Denmark,    Denmark     (SOPPA)
  Janus J. Eriksen,         Aarhus University,            Denmark     (Polarizable embedding model, TDA)
  Rasmus Faber,             University of Copenhagen,     Denmark     (Vib.avg. NMR with SOPPA, parallel AO-SOPPA)
  Berta Fernandez,          U. of Santiago de Compostela, Spain       (doublet spin, ESR in RESPONS)
  Lara Ferrighi,            Aarhus University,            Denmark     (PCM Cubic response)
  Heike Fliegl,             University of Oslo,           Norway      (CCSD(R12))
  Luca Frediani,            UiT The Arctic U. of Norway,  Norway      (PCM)
  Bin Gao,                  UiT The Arctic U. of Norway,  Norway      (Gen1Int library)
  Christof Haettig,         Ruhr-University Bochum,       Germany     (CC module)
  Kasper Hald,              Aarhus University,            Denmark     (CC module)
  Asger Halkier,            Aarhus University,            Denmark     (CC module)
  Frederik Beyer Hansen,    University of Copenhagen,     Denmark     (Parallel AO-SOPPA)
  Erik D. Hedegaard,        Univ. of Southern Denmark,    Denmark     (Polarizable embedding model, QM/MM)
  Hanne Heiberg,            University of Oslo,           Norway      (geometry analysis, selected one-electron integrals)
  Trygve Helgaker,          University of Oslo,           Norway      (DALTON; ABACUS, ERI, DFT modules, London, and much more)
  Alf Christian Hennum,     University of Oslo,           Norway      (Parity violation)
  Hinne Hettema,            University of Auckland,       New Zealand (quadratic response in RESPONS; SIRIUS supersymmetry)
  Eirik Hjertenaes,         NTNU,                         Norway      (Cholesky decomposition)
  Maria Francesca Iozzi,    University of Oslo,           Norway      (RPA)
  Brano Jansik              Technical Univ. of Ostrava    Czech Rep.  (DFT cubic response)
  Hans Joergen Aa. Jensen,  Univ. of Southern Denmark,    Denmark     (DALTON; SIRIUS, RESPONS, ABACUS modules, London, and much more)
  Dan Jonsson,              UiT The Arctic U. of Norway,  Norway      (cubic response in RESPONS module)
  Poul Joergensen,          Aarhus University,            Denmark     (RESPONS, ABACUS, and CC modules)
  Maciej Kaminski,          University of Warsaw,         Poland      (CPPh in RESPONS)
  Joanna Kauczor,           Linkoeping University,        Sweden      (Complex polarization propagator (CPP) module)
  Sheela Kirpekar,          Univ. of Southern Denmark,    Denmark     (Mass-velocity & Darwin integrals)
  Wim Klopper,              KIT Karlsruhe,                Germany     (R12 code in CC, SIRIUS, and ABACUS modules)
  Stefan Knecht,            ETH Zurich,                   Switzerland (Parallel CI and MCSCF)
  Rika Kobayashi,           Australian National Univ.,    Australia   (DIIS in CC, London in MCSCF)
  Henrik Koch,              NTNU,                         Norway      (CC module, Cholesky decomposition)
  Jacob Kongsted,           Univ. of Southern Denmark,    Denmark     (Polarizable embedding model, QM/MM)
  Andrea Ligabue,           University of Modena,         Italy       (CTOCD, AOSOPPA)
  Nanna H. List             Univ. of Southern Denmark,    Denmark     (Polarizable embedding model)
  Ola B. Lutnaes,           University of Oslo,           Norway      (DFT Hessian)
  Juan I. Melo,             University of Buenos Aires,   Argentina   (LRESC, Relativistic Effects on NMR Shieldings)
  Kurt V. Mikkelsen,        University of Copenhagen,     Denmark     (MC-SCRF and QM/MM)
  Rolf H. Myhre,            NTNU,                         Norway      (Cholesky, subsystems and ECC2)
  Christian Neiss,          Univ. Erlangen-Nuernberg,     Germany     (CCSD(R12))
  Christian B. Nielsen,     University of Copenhagen,     Denmark     (QM/MM)
  Patrick Norman,           Linkoeping University,        Sweden      (Cubic response and complex frequency response in RESPONS)
  Jeppe Olsen,              Aarhus University,            Denmark     (SIRIUS CI/density modules)
  Jogvan Magnus H. Olsen,   Univ. of Southern Denmark,    Denmark     (Polarizable embedding model, QM/MM)
  Anders Osted,             Copenhagen University,        Denmark     (QM/MM)
  Martin J. Packer,         University of Sheffield,      UK          (SOPPA)
  Filip Pawlowski,          Kazimierz Wielki University,  Poland      (CC3)
  Morten N. Pedersen,       Univ. of Southern Denmark,    Denmark     (Polarizable embedding model)
  Thomas B. Pedersen,       University of Oslo,           Norway      (Cholesky decomposition)
  Patricio F. Provasi,      University of Northeastern,   Argentina   (Analysis of coupling constants in localized orbitals)
  Zilvinas Rinkevicius,     KTH Stockholm,                Sweden      (open-shell DFT, ESR)
  Elias Rudberg,            KTH Stockholm,                Sweden      (DFT grid and basis info)
  Torgeir A. Ruden,         University of Oslo,           Norway      (Numerical derivatives in ABACUS)
  Kenneth Ruud,             UiT The Arctic U. of Norway,  Norway      (DALTON; ABACUS magnetic properties and much more)
  Pawel Salek,              KTH Stockholm,                Sweden      (DALTON; DFT code)
  Claire C. M. Samson       University of Karlsruhe       Germany     (Boys localization, r12 integrals in ERI)
  Alfredo Sanchez de Meras, University of Valencia,       Spain       (CC module, Cholesky decomposition)
  Trond Saue,               Paul Sabatier University,     France      (direct Fock matrix construction)
  Stephan P. A. Sauer,      University of Copenhagen,     Denmark     (SOPPA(CCSD), SOPPA prop., AOSOPPA, vibrational g-factors)
  Bernd Schimmelpfennig,    Forschungszentrum Karlsruhe,  Germany     (AMFI module)
  Kristian Sneskov,         Aarhus University,            Denmark     (Polarizable embedding model, QM/MM)
  Arnfinn H. Steindal,      UiT The Arctic U. of Norway,  Norway      (parallel QM/MM, Polarizable embedding model)
  Casper Steinmann,         Univ. of Southern Denmark,    Denmark     (QFIT, Polarizable embedding model)
  K. O. Sylvester-Hvid,     University of Copenhagen,     Denmark     (MC-SCRF)
  Peter R. Taylor,          VLSCI/Univ. of Melbourne,     Australia   (Symmetry handling ABACUS, integral transformation)
  Andrew M. Teale,          University of Nottingham,     England     (DFT-AC, DFT-D)
  David P. Tew,             University of Bristol,        England     (CCSD(R12))
  Olav Vahtras,             KTH Stockholm,                Sweden      (triplet response, spin-orbit, ESR, TDDFT, open-shell DFT)
  David J. Wilson,          La Trobe University,          Australia   (DFT Hessian and DFT magnetizabilities)
  Hans Agren,               KTH Stockholm,                Sweden      (SIRIUS module, RESPONS, MC-SCRF solvation model)
 --------------------------------------------------------------------------------

     Date and time (Linux)  : Tue Jul  4 22:13:17 2017
     Host name              : copper                                  

 * Work memory size             :    64000000 =  488.28 megabytes.

 * Directories for basis set searches:
   1) /home/eric/Chemistry/mcscf_canonical_examples/beryllium_atom/casscf_2_4_singlet_ss_0
   2) /home/eric/opt/apps/dalton/2016.2-g7.1.1-openblas-omp/dalton/basis


Compilation information
-----------------------

 Who compiled             | eric
 Host                     | copper
 System                   | Linux-4.11.2-1-ARCH
 CMake generator          | Unix Makefiles
 Processor                | x86_64
 64-bit integers          | OFF
 MPI                      | OFF
 Fortran compiler         | /usr/bin/gfortran
 Fortran compiler version | GNU Fortran (GCC) 7.1.1 20170528
 C compiler               | /usr/bin/gcc
 C compiler version       | gcc (GCC) 7.1.1 20170528
 C++ compiler             | /usr/bin/g++
 C++ compiler version     | g++ (GCC) 7.1.1 20170528
 BLAS                     | /lib64/libopenblas.so
 LAPACK                   | /lib64/liblapack.so
 Static linking           | OFF
 Last Git revision        | 7db4647eac203e51aae7da3cbc289f55146b30e9
 Configuration time       | 2017-06-04 17:05:50.015987


   Content of the .dal input file
 ----------------------------------

BASIS
Turbomole-TZVPP
---
---
Atomtypes=1 Angstrom Charge=0
Charge=4.0 Atoms=1
Be 0.0 0.0 0.0

**DALTON INPUT
.DIRECT
.RUN WAVE FUNCTIONS
**WAVE FUNCTIONS
.HF
.MCSCF
*CONFIGURATION INPUT
.SYMMETRY
1
.SPIN MULTIPLICITY
1
.INACTIVE
1 0 0 0 0 0 0 0
.CAS SPACE
1 1 1 0 1 0 0 0
.ELECTRONS
2
**END OF DALTON INPUT


       *******************************************************************
       *********** Output from DALTON general input processing ***********
       *******************************************************************

 --------------------------------------------------------------------------------
   Overall default print level:    0
   Print level for DALTON.STAT:    1

    AO-direct calculation (in sections where implemented)
    HERMIT 1- and 2-electron integral sections will be executed
    "Old" integral transformation used (limited to max 255 basis functions)
    Wave function sections will be executed (SIRIUS module)
 --------------------------------------------------------------------------------


   ****************************************************************************
   *************** Output of molecule and basis set information ***************
   ****************************************************************************


    The two title cards from your ".mol" input:
    ------------------------------------------------------------------------
 1: ---                                                                     
 2: ---                                                                     
    ------------------------------------------------------------------------

  Coordinates are entered in Angstrom and converted to atomic units.
          - Conversion factor : 1 bohr = 0.52917721 A

  Atomic type no.    1
  --------------------
  Nuclear charge:   4.00000
  Number of symmetry independent centers:    1
  Number of basis sets to read;    2
  Basis set file used for this atomic type with Z =   4 :
     "/home/eric/opt/apps/dalton/2016.2-g7.1.1-openblas-omp/dalton/basis/Turbomole-TZVPP"


                      SYMADD: Requested addition of symmetry
                      --------------------------------------

 Symmetry test threshold:  5.00E-06

@   The molecule is centered at center of mass and rotated
@   so principal axes of inertia are along coordinate axes.

 Symmetry class found: D(oo,h)        

 Symmetry Independent Centres             
 ----------------------------
       4 :      0.00000000     0.00000000     0.00000000  Isotope  1

 The following elements were found:   X  Y  Z  


                         SYMGRP: Point group information
                         -------------------------------

@    Full point group is: D(oo,h)        
@    Represented as:      D2h

@  * The irrep name for each symmetry:    1: Ag     2: B3u    3: B2u    4: B1g    5: B1u    6: B2g    7: B3g    8: Au 


   * The point group was generated by:

      Reflection in the yz-plane
      Reflection in the xz-plane
      Reflection in the xy-plane

   * Group multiplication table

        |  E   C2z  C2y  C2x   i   Oxy  Oxz  Oyz
   -----+----------------------------------------
     E  |  E   C2z  C2y  C2x   i   Oxy  Oxz  Oyz
    C2z | C2z   E   C2x  C2y  Oxy   i   Oyz  Oxz
    C2y | C2y  C2x   E   C2z  Oxz  Oyz   i   Oxy
    C2x | C2x  C2y  C2z   E   Oyz  Oxz  Oxy   i 
     i  |  i   Oxy  Oxz  Oyz   E   C2z  C2y  C2x
    Oxy | Oxy   i   Oyz  Oxz  C2z   E   C2x  C2y
    Oxz | Oxz  Oyz   i   Oxy  C2y  C2x   E   C2z
    Oyz | Oyz  Oxz  Oxy   i   C2x  C2y  C2z   E 

   * Character table

        |  E   C2z  C2y  C2x   i   Oxy  Oxz  Oyz
   -----+----------------------------------------
    Ag  |   1    1    1    1    1    1    1    1
    B3u |   1   -1   -1    1   -1    1    1   -1
    B2u |   1   -1    1   -1   -1    1   -1    1
    B1g |   1    1   -1   -1    1    1   -1   -1
    B1u |   1    1   -1   -1   -1   -1    1    1
    B2g |   1   -1    1   -1    1   -1    1   -1
    B3g |   1   -1   -1    1    1   -1   -1    1
    Au  |   1    1    1    1   -1   -1   -1   -1

   * Direct product table

        | Ag   B3u  B2u  B1g  B1u  B2g  B3g  Au 
   -----+----------------------------------------
    Ag  | Ag   B3u  B2u  B1g  B1u  B2g  B3g  Au 
    B3u | B3u  Ag   B1g  B2u  B2g  B1u  Au   B3g
    B2u | B2u  B1g  Ag   B3u  B3g  Au   B1u  B2g
    B1g | B1g  B2u  B3u  Ag   Au   B3g  B2g  B1u
    B1u | B1u  B2g  B3g  Au   Ag   B3u  B2u  B1g
    B2g | B2g  B1u  Au   B3g  B3u  Ag   B1g  B2u
    B3g | B3g  Au   B1u  B2g  B2u  B1g  Ag   B3u
    Au  | Au   B3g  B2g  B1u  B1g  B2u  B3u  Ag 


                                 Isotopic Masses
                                 ---------------

                           Be          9.012183

                       Total mass:     9.012183 amu
                       Natural abundance: 100.000 %

 Center-of-mass coordinates (a.u.):    0.000000    0.000000    0.000000


  Atoms and basis sets
  --------------------

  Number of atom types :    1
  Total number of atoms:    1

  Basis set used is "Turbomole-TZVPP" from the basis set library.

  label    atoms   charge   prim   cont     basis
  ----------------------------------------------------------------------
  Be          1    4.0000    23    14      [11s4p|5s3p]                                       
  ----------------------------------------------------------------------
  total:      1    4.0000    23    14
  ----------------------------------------------------------------------

  Threshold for neglecting AO integrals:  1.00D-12


  Cartesian Coordinates (a.u.)
  ----------------------------

  Total number of coordinates:    3
  Be      :     1  x   0.0000000000    2  y   0.0000000000    3  z   0.0000000000


  Symmetry Coordinates
  --------------------

  Number of coordinates in each symmetry:     0    1    1    0    1    0    0    0

  Symmetry  B3u ( 2)

    1   Be    x    1

  Symmetry  B2u ( 3)

    2   Be    y    2

  Symmetry  B1u ( 5)

    3   Be    z    3


@ This is an atomic calculation.


  Symmetry Orbitals
  -----------------

  Number of orbitals in each symmetry:           5    3    3    0    3    0    0    0


  Symmetry  Ag ( 1)

    1     Be       1s         1
    2     Be       1s         2
    3     Be       1s         3
    4     Be       1s         4
    5     Be       1s         5


  Symmetry  B3u( 2)

    6     Be       2px        6
    7     Be       2px        9
    8     Be       2px       12


  Symmetry  B2u( 3)

    9     Be       2py        7
   10     Be       2py       10
   11     Be       2py       13


  No orbitals in symmetry  B1g( 4)


  Symmetry  B1u( 5)

   12     Be       2pz        8
   13     Be       2pz       11
   14     Be       2pz       14


  No orbitals in symmetry  B2g( 6)


  No orbitals in symmetry  B3g( 7)


  No orbitals in symmetry  Au ( 8)

  Symmetries of electric field:  B3u(2)  B2u(3)  B1u(5)

  Symmetries of magnetic field:  B3g(7)  B2g(6)  B1g(4)


                     .---------------------------------------.
                     | Starting in Integral Section (HERMIT) |
                     `---------------------------------------'



 ***************************************************************************************
 ****************** Output from **INTEGRALS input processing (HERMIT) ******************
 ***************************************************************************************


 - Using defaults, no **INTEGRALS input found

 Default print level:        1

 * Nuclear model: Point charge

 Calculation of one-electron Hamiltonian integrals.

 Center of mass  (bohr):      0.000000000000      0.000000000000      0.000000000000
 Operator center (bohr):      0.000000000000      0.000000000000      0.000000000000
 Gauge origin    (bohr):      0.000000000000      0.000000000000      0.000000000000
 Dipole origin   (bohr):      0.000000000000      0.000000000000      0.000000000000


     ************************************************************************
     ************************** Output from HERINT **************************
     ************************************************************************

  Total CPU  time used in HERMIT:   0.01 seconds
  Total wall time used in HERMIT:   0.01 seconds


                        .----------------------------------.
                        | End of Integral Section (HERMIT) |
                        `----------------------------------'



                   .--------------------------------------------.
                   | Starting in Wave Function Section (SIRIUS) |
                   `--------------------------------------------'


 *** Output from Huckel module :

     Using EWMO model:          T
     Using EHT  model:          F
     Number of Huckel orbitals each symmetry:    2    1    1    0    1    0    0    0

 EWMO - Energy Weighted Maximum Overlap - is a Huckel type method,
        which normally is better than Extended Huckel Theory.
 Reference: Linderberg and Ohrn, Propagators in Quantum Chemistry (Wiley, 1973)

 Huckel EWMO eigenvalues for symmetry :  1
           -4.732700      -0.309300

 Huckel EWMO eigenvalues for symmetry :  2
           -0.206000

 Huckel EWMO eigenvalues for symmetry :  3
           -0.206000

 Huckel EWMO eigenvalues for symmetry :  5
           -0.206000

 **********************************************************************
 *SIRIUS* a direct, restricted step, second order MCSCF program       *
 **********************************************************************

 
     Date and time (Linux)  : Tue Jul  4 22:13:18 2017
     Host name              : copper                                  

 Title lines from ".mol" input file:
     ---                                                                     
     ---                                                                     

 Print level on unit LUPRI =   2 is   0
 Print level on unit LUW4  =   2 is   5

@    MC-SCF optimization.
@              Type: complete active space calculation (CAS).

@    This is a combination run starting with
@              a restricted, closed shell Hartree-Fock calculation

 Fock matrices are calculated directly without use of integrals on disk.

 Initial molecular orbitals are obtained according to
 ".MOSTART EWMO  " input option

     Wave function specification
     ============================
@    Wave function type        --- MC-SCF ---
@    Number of closed shell electrons           2
@    Number of electrons in active shells       2
@    Total charge of the molecule               0

@    Spin multiplicity and 2 M_S                1         0
@    Total number of symmetries                 8 (point group: D2h)
@    Reference state symmetry                   1 (irrep name : Ag )

     Orbital specifications
     ======================
@    Abelian symmetry species          All |    1    2    3    4    5    6    7    8
@                                          |  Ag   B3u  B2u  B1g  B1u  B2g  B3g  Au 
                                       --- |  ---  ---  ---  ---  ---  ---  ---  ---
@    Inactive orbitals                   1 |    1    0    0    0    0    0    0    0
@    Active orbitals                     4 |    1    1    1    0    1    0    0    0
@    Secondary orbitals                  9 |    3    2    2    0    2    0    0    0
@    Total number of orbitals           14 |    5    3    3    0    3    0    0    0
@    Number of basis functions          14 |    5    3    3    0    3    0    0    0

      ** Automatic occupation of RHF orbitals **

      -- Initial occupation of symmetries is determined from extended Huckel guess.           
      -- Initial occupation of symmetries is :
@    Occupied SCF orbitals               2 |    2    0    0    0    0    0    0    0

     Optimization information
     ========================
@    Number of configurations                 4
@    Number of orbital rotations             13
     ------------------------------------------
@    Total number of variables               17

     Maximum number of macro iterations      25
     Maximum number of micro iterations     600
     Threshold for MCSCF gradient      1.00D-05
     Number of initial trial vectors          1
     Number of initial CI iterations          3
     Number of simultaneous trial vectors     1

@    This calculation converges to the lowest state for the specified symmetry and spin species.

     Maximum number of NEO/NR iterations  24


 ***********************************************
 ***** DIIS acceleration of SCF iterations *****
 ***********************************************

 C1-DIIS algorithm; max error vectors =    6

 Automatic occupation of symmetries with   4 electrons.

 Iter     Total energy    Error norm  Delta(E)    SCF occupation
 -----------------------------------------------------------------------------
   1  Screening settings (-IFTHRS, JTDIIS, DIFDEN, times)   -5    1    T  7.71D-04  1.00D-03
@  1  -14.5471691998       7.80D-01  -1.45D+01     2   0   0   0   0   0   0   0
      Virial theorem: -V/T =      1.984585
@      MULPOP Be     -0.00; 
   1  Level shift: doubly occupied orbital energies shifted by -2.00D-01
 -----------------------------------------------------------------------------
   2  Screening settings (-IFTHRS, JTDIIS, DIFDEN, times)   -5    2    T  6.67D-04  1.00D-03
@  2  -14.5604456223       8.58D-02  -1.33D-02     2   0   0   0   0   0   0   0
      Virial theorem: -V/T =      1.993252
@      MULPOP Be     -0.00; 
   2  Level shift: doubly occupied orbital energies shifted by -5.00D-02
 -----------------------------------------------------------------------------
   3  Screening settings (-IFTHRS, JTDIIS, DIFDEN, times)   -9    3    F  6.62D-04  0.00D+00
@  3  -14.5619829611       2.15D-02  -1.54D-03     2   0   0   0   0   0   0   0
      Virial theorem: -V/T =      1.996022
@      MULPOP Be     -0.00; 
   3  Level shift: doubly occupied orbital energies shifted by -2.50D-02
 -----------------------------------------------------------------------------
   4  Screening settings (-IFTHRS, JTDIIS, DIFDEN, times)   -9    4    T  6.72D-04  0.00D+00
@  4  -14.5621315020       1.67D-03  -1.49D-04     2   0   0   0   0   0   0   0
      Virial theorem: -V/T =      1.997264
@      MULPOP Be     -0.00; 
 -----------------------------------------------------------------------------
   5  Screening settings (-IFTHRS, JTDIIS, DIFDEN, times)   -9    5    T  6.61D-04  1.00D-03
@  5  -14.5621324115       3.73D-05  -9.10D-07     2   0   0   0   0   0   0   0
      Virial theorem: -V/T =      1.997393
@      MULPOP Be      0.00; 
 -----------------------------------------------------------------------------
   6  Screening settings (-IFTHRS, JTDIIS, DIFDEN, times)   -9    6    T  6.62D-04  1.00D-03
@  6  -14.5621324118       1.06D-06  -2.96D-10     2   0   0   0   0   0   0   0

@ *** DIIS converged in   6 iterations !
@     Converged SCF energy, gradient:    -14.562132411814    1.06D-06
    - total time used in SIRFCK :              0.00 seconds

 --- Writing SIRIFC interface file

 CPU and wall time for SCF :       0.008       0.007


        SIRIUS MCSCF optimization (SIROPT)
 ================================================


 Fock matrix screening setting for SIRCNO: IFTHRS =    9


 ----- Output from SIRIUS CI module (CICTL) -----




---> (Re)generating AOTWOINT


     ************************************************************************
     ************************** Output from HERINT **************************
     ************************************************************************


 Threshold for neglecting two-electron integrals:  1.00D-12
 HERMIT - Number of two-electron integrals written:        1056 ( 19.0% )
 HERMIT - Megabytes written:                              0.014


 Integral transformation: Total CPU and WALL times (sec)       0.002       0.002

 (CIST1)  4 lowest diagonal elements:

 Element no. Config.no.    Active energy      Total energy

         1 :          1     -0.9510945976    -14.5621324118
         2 :          2     -0.6291656039    -14.2402034181
         3 :          3     -0.6291656039    -14.2402034181
         4 :          4     -0.6291656039    -14.2402034181


 Convergence threshold for CI optimization :     0.00000500


 The requested root number is now converged.


 *** CI converged in  2 iterations.



@ Final CI energies and residuals in symmetry 1 (irrep Ag )
@    1      -14.584262075952577       2.78D-17

   --- OUTPUT FROM SIRCNO     Keyword = FD+NO 



 --- MACRO ITERATION  1 ---
 --------------------------

 Integral transformation: Total CPU and WALL times (sec)       0.001       0.000

 Fock matrix screening setting for this macro iteration: 10^( -9)

 Total MCSCF energy       :           -14.584262075952577  (MACRO    1)

 - Nuclear repulsion      :             0.000000000000000
 - Inactive energy        :           -13.611037814212205
 - Active energy          :            -0.973224261740372

 Norm of total gradient   :             0.044451246323
 -    of CI gradient      :             0.000000000000
 -    of orbital gradient :             0.044451246323
      Virial theorem: -V/T =      2.001148
@      MULPOP Be      0.00; 

 Residual norm when dim(red L) =   4
 NEO root     CSF        orbital          total
    1     0.00000000     0.00825873     0.00825873 converged

 (NEONEX) NEO vector is converged.

   --- OUTPUT FROM SIRCNO     Keyword = FD+NO 



 --- MACRO ITERATION  2 ---
 --------------------------

 Integral transformation: Total CPU and WALL times (sec)       0.001       0.001

 Fock matrix screening setting for this macro iteration: 10^( -9)

 Total MCSCF energy       :           -14.602332419641137  (MACRO    2)

 - Nuclear repulsion      :             0.000000000000000
 - Inactive energy        :           -13.608654607092777
 - Active energy          :            -0.993677812548360

 Norm of total gradient   :             0.070394875147
 -    of CI gradient      :             0.059724252640
 -    of orbital gradient :             0.037261938940
      Virial theorem: -V/T =      1.998985
@      MULPOP Be      0.00; 

 Residual norm when dim(red L) =   4
 NEO root     CSF        orbital          total
    1     0.00000000     0.00193890     0.00193890 converged

 (NEONEX) NEO vector is converged.

   --- OUTPUT FROM SIRCNO     Keyword = FD+NO 



 --- MACRO ITERATION  3 ---
 --------------------------

 Integral transformation: Total CPU and WALL times (sec)       0.001       0.001

 Fock matrix screening setting for this macro iteration: 10^( -9)

 Total MCSCF energy       :           -14.605340295473347  (MACRO    3)

 - Nuclear repulsion      :             0.000000000000000
 - Inactive energy        :           -13.609422523224074
 - Active energy          :            -0.995917772249274

 Norm of total gradient   :             0.006402241651
 -    of CI gradient      :             0.000922384895
 -    of orbital gradient :             0.006335448229
      Virial theorem: -V/T =      1.996427
@      MULPOP Be     -0.00; 

 Residual norm when dim(red L) =   4
 NEO root     CSF        orbital          total
    1     0.00030965     0.00002954     0.00031106 converged

 (NEONEX) NEO vector is converged.

   --- OUTPUT FROM SIRCNO     Keyword = FD+NO 



 --- MACRO ITERATION  4 ---
 --------------------------

 Integral transformation: Total CPU and WALL times (sec)       0.001       0.001

 Fock matrix screening setting for this macro iteration: 10^( -9)

 Total MCSCF energy       :           -14.605381382101605  (MACRO    4)

 - Nuclear repulsion      :             0.000000000000000
 - Inactive energy        :           -13.609812855271480
 - Active energy          :            -0.995568526830125

 Norm of total gradient   :             0.000484139013
 -    of CI gradient      :             0.000483513109
 -    of orbital gradient :             0.000024610111
      Virial theorem: -V/T =      1.996418
@      MULPOP Be      0.00; 

 Residual norm when dim(red L) =   5
 NEO root     CSF        orbital          total
    1     0.00000000     0.00000058     0.00000058 converged

 (NEONEX) NEO vector is converged.

   --- OUTPUT FROM SIRCNO     Keyword = FD+NO 



 --- MACRO ITERATION  5 ---
 --------------------------

 Integral transformation: Total CPU and WALL times (sec)       0.001       0.001

 Fock matrix screening setting for this macro iteration: 10^( -9)

 Total MCSCF energy       :           -14.605381529952400  (MACRO    5)

 - Nuclear repulsion      :             0.000000000000000
 - Inactive energy        :           -13.609806496574439
 - Active energy          :            -0.995575033377960

 Norm of total gradient   :             0.000000615899
 -    of CI gradient      :             0.000000078649
 -    of orbital gradient :             0.000000610856
      Virial theorem: -V/T =      1.996418
@      MULPOP Be      0.00; 

 *** Optimization control: MCSCF converged ***
     Number of macro iterations used            5
     Number of micro iterations used           11
     Total number of CPU seconds used         0.03

 CPU and wall time for MCSCF :       0.034       0.034


                     .----------------------------------------.
                     | --- SIRIUS OPTIMIZATION STATISTICS --- |
                     `----------------------------------------'


 
     Date and time (Linux)  : Tue Jul  4 22:13:18 2017
     Host name              : copper                                  


  ITER ITMIC     EMCSCF           GRDNRM        RATIO      STPLNG
 ---------------------------------------------------------------------
    1    3    -14.584262075953   0.0444512463  0.000000   0.6951630517
    2    2    -14.602332419641   0.0703948751  0.571622   0.1367748532
    3    3    -14.605340295473   0.0064022417  1.015930   0.0277112526
    4    3    -14.605381382102   0.0004841390  1.002251   0.0008237524
    5    0    -14.605381529952   0.0000006159  0.999990   0.0000000000


  ITER  INDGCM  GCIMAX      GCINRM     INDGOM  GOBMAX      GOBNRM      GRDNRM
 ------------------------------------------------------------------------------
    1      1   -0.000000    0.000000      8    0.022885    0.044451    0.044451
    2      3    0.031833    0.059724      5    0.024315    0.037262    0.070395
    3      4   -0.000505    0.000922      1   -0.003629    0.006335    0.006402
    4      2    0.000265    0.000484      7   -0.000011    0.000025    0.000484
    5      2   -0.000000    0.000000      7    0.000000    0.000001    0.000001


  ITER ITMIC NCLIN NOLIN   TIMMAC    TIMITR    TIMMIC    TIMLIN    TIMMIC/ITMIC
 ------------------------------------------------------------------------------

    1     3     1     2      0.01      0.00      0.00      0.00      0.00
    2     2     1     2      0.01      0.00      0.00      0.00      0.00
    3     3     0     3      0.01      0.00      0.00      0.00      0.00
    4     3     1     3      0.01      0.00      0.00      0.00      0.00
    5     0     0     0      0.00      0.00      0.00      0.00


 ITER         EMY                 EACTIV              EMCSCF

    1    -13.611037814212     -0.973224261740    -14.584262075953
    2    -13.608654607093     -0.993677812548    -14.602332419641
    3    -13.609422523224     -0.995917772249    -14.605340295473
    4    -13.609812855271     -0.995568526830    -14.605381382102
    5    -13.609806496574     -0.995575033378    -14.605381529952


 ITER         DEPRED              DEACT               RATIO

    1      0.000000000000      0.000000000000      0.000000000000
    2     -0.031612415050     -0.018070343689      0.571621739742
    3     -0.002960710590     -0.003007875832      1.015930379096
    4     -0.000040994337     -0.000041086628      1.002251314999
    5     -0.000000147852     -0.000000147851      0.999990443333


 ITER    BETA           GAMMA             STPLNG              RTRUST

    1      1.66174714  1.00000000      0.695163051697      0.700000000000
    2      0.20000000  1.00000000      0.136774853155      0.700000000000
    3      0.20000000  1.00000000      0.027711252595      0.700000000000
    4      0.20000000  1.00000000      0.000823752416      0.700000000000
    5      0.00000000  0.00000000      0.000000000000      0.700000000000


 Reduced L root no.  1
 ITER         EVAL              EVEC(1)           EVEC(2)           EVEC(3)
 ----------------------------------------------------------------------------
    1   -0.074788089380   -0.654496675390    0.736164900181    0.170471060343
    2   -0.000236679741    0.999626062639   -0.014662099269   -0.022709257170
    3   -0.000003279446    0.999984642083   -0.005536658784   -0.000246743672
    4   -0.000000011828    0.999999986429   -0.000119805668   -0.000112380926
    5    0.000000000000    0.000000000000    0.000000000000    0.000000000000


                       .-----------------------------------.
                       | --- Final results from SIRIUS --- |
                       `-----------------------------------'


@    Spin multiplicity:           1
@    Spatial symmetry:            1 ( irrep  Ag  in D2h )
@    Total charge of molecule:    0
@    State number:                1

@    Final MCSCF energy:          -14.605381529952                 
@    Nuclear repulsion:             0.000000000000
@    Electronic energy:           -14.605381529952

@    Final gradient norm:           0.000000615899

 
     Date and time (Linux)  : Tue Jul  4 22:13:18 2017
     Host name              : copper                                  

 Occupancies of natural orbitals
 -------------------------------

 Symmetry 1  ( Ag ) -- Total occupation in this symmetry is   3.801212456

   2.000000000   1.801212456

 Symmetry 2  ( B3u) -- Total occupation in this symmetry is   0.066262515

   0.066262515

 Symmetry 3  ( B2u) -- Total occupation in this symmetry is   0.066262515

   0.066262515

 Symmetry 4  ( B1g) -- No occupied orbitals

 Symmetry 5  ( B1u) -- Total occupation in this symmetry is   0.066262515

   0.066262515

 Symmetry 6  ( B2g) -- No occupied orbitals

 Symmetry 7  ( B3g) -- No occupied orbitals

 Symmetry 8  ( Au ) -- No occupied orbitals

File label for MO orbitals:   4Jul17   (CNOORB)

 (Only coefficients > 0.0100 are printed.)

 Molecular orbitals for symmetry species 1  (Ag )
 ------------------------------------------------

    Orbital         1        2        3        4        5
   1 Be  :1s     0.5472  -0.1078   0.0902   0.2220   1.6168
   2 Be  :1s     0.5408  -0.1734   0.0776   1.6043  -3.5875
   3 Be  :1s     0.0021  -0.0907   0.2452  -2.9729   2.7903
   4 Be  :1s    -0.0046   0.7893  -1.2819   1.4342  -0.6464
   5 Be  :1s    -0.0065   0.4230   1.2210  -0.3540   0.1441

 Molecular orbitals for symmetry species 2  (B3u)
 ------------------------------------------------

    Orbital         1        2        3
   1 Be  :2px   -0.0220   0.0217   1.0371
   2 Be  :2px   -0.7920   0.9506  -0.3796
   3 Be  :2px    0.2932   1.2102  -0.1906

 Molecular orbitals for symmetry species 3  (B2u)
 ------------------------------------------------

    Orbital         1        2        3
   1 Be  :2py   -0.0220   0.0217   1.0371
   2 Be  :2py   -0.7920   0.9506  -0.3796
   3 Be  :2py    0.2932   1.2102  -0.1906

 Molecular orbitals for symmetry species 5  (B1u)
 ------------------------------------------------

    Orbital         1        2        3
   1 Be  :2pz   -0.0220   0.0217   1.0371
   2 Be  :2pz   -0.7920   0.9506  -0.3796
   3 Be  :2pz    0.2932   1.2102  -0.1906

 Printout of CI-coefficients abs greater than 0.05000 for root  1
 *** NOTE: this root is the reference state ***

 Printout of coefficients in interval  3.1623E-01 to  1.0000E+00
 ===============================================================

  Coefficient of CSF no.         1 is     -0.94900275   -9.49002754E-01
  Orbital          1
  Spin coupling    2

 Printout of coefficients in interval  1.0000E-01 to  3.1623E-01
 ===============================================================

  Coefficient of CSF no.         2 is      0.18201994    1.82019937E-01
  Orbital          2
  Spin coupling    2

  Coefficient of CSF no.         3 is      0.18201994    1.82019937E-01
  Orbital          3
  Spin coupling    2

  Coefficient of CSF no.         4 is      0.18201994    1.82019937E-01
  Orbital          4
  Spin coupling    2

 Printout of coefficients in interval  5.0000E-02 to  1.0000E-01
 ===============================================================
   ( no coefficients )

 Norm of printed CI vector ..      1.00000000

 Magnitude of CI coefficients
 ============================
 ( Ranges are relative to norm of vector :  1.00E+00 )

  10- 1 to 10- 0         4    0.10000000E+01      1.0000000000
  Number of coefficients less than 10^-11 times norm is            0

  Total CPU  time used in SIRIUS :   0.05 seconds
  Total wall time used in SIRIUS :   0.05 seconds

 
     Date and time (Linux)  : Tue Jul  4 22:13:18 2017
     Host name              : copper                                  


                     .---------------------------------------.
                     | End of Wave Function Section (SIRIUS) |
                     `---------------------------------------'

  Total CPU  time used in DALTON:   0.06 seconds
  Total wall time used in DALTON:   0.06 seconds

 
     Date and time (Linux)  : Tue Jul  4 22:13:18 2017
     Host name              : copper                                  
