
    -----------------------------------------------------------------------
          Psi4: An Open-Source Ab Initio Electronic Structure Package
                               Psi4 1.1 release

                         Git: Rev {HEAD} add49b9 


    R. M. Parrish, L. A. Burns, D. G. A. Smith, A. C. Simmonett,
    A. E. DePrince III, E. G. Hohenstein, U. Bozkaya, A. Yu. Sokolov,
    R. Di Remigio, R. M. Richard, J. F. Gonthier, A. M. James,
    H. R. McAlexander, A. Kumar, M. Saitow, X. Wang, B. P. Pritchard,
    P. Verma, H. F. Schaefer III, K. Patkowski, R. A. King, E. F. Valeev,
    F. A. Evangelista, J. M. Turney, T. D. Crawford, and C. D. Sherrill,
    J. Chem. Theory Comput. in press (2017).
    (doi: 10.1021/acs.jctc.7b00174)

    -----------------------------------------------------------------------


    Psi4 started on: Tuesday, 04 July 2017 11:03PM

    Process ID:  17806
    PSIDATADIR: /media/Backup/opt/apps/python/psi4conda/share/psi4
    Memory:     500.0 MiB
    Threads:    1
    
  ==> Input File <==

--------------------------------------------------------------------------
# -*- mode: python -*-

molecule {
    Be 0.0 0.0 0.0

    symmetry c1
}

set {
    reference rhf
    scf_type direct
    df_scf_guess false
    basis tzvpp
    num_roots 1
    restricted_docc [1]
    active [4]
}

energy('casscf')
--------------------------------------------------------------------------

*** tstart() called on copper
*** at Tue Jul  4 23:03:17 2017

   => Loading Basis Set <=

    Name: TZVPP
    Role: ORBITAL
    Keyword: BASIS
    atoms 1 entry BE         line     3 file /home/eric/Chemistry/mcscf_canonical_examples/beryllium_atom/casscf_2_4_singlet_ss_0/tzvpp.gbs 

    There are an even number of electrons - assuming singlet.
    Specify the multiplicity in the molecule input block.


         ---------------------------------------------------------
                                   SCF
            by Justin Turney, Rob Parrish, and Andy Simmonett
                              RHF Reference
                        1 Threads,    500 MiB Core
         ---------------------------------------------------------

  ==> Geometry <==

    Molecular point group: c1
    Geometry (in Angstrom), charge = 0, multiplicity = 1:

       Center              X                  Y                   Z               Mass       
    ------------   -----------------  -----------------  -----------------  -----------------
          BE          0.000000000000     0.000000000000     0.000000000000     9.012182201000

  Running in c1 symmetry.

  Rotational constants: A = ************  B = ************  C = ************ [cm^-1]
  Rotational constants: A = ************  B = ************  C = ************ [MHz]
  Nuclear repulsion =    0.000000000000000

  Charge       = 0
  Multiplicity = 1
  Electrons    = 4
  Nalpha       = 2
  Nbeta        = 2

  ==> Algorithm <==

  SCF Algorithm Type is DIRECT.
  DIIS enabled.
  MOM disabled.
  Fractional occupation disabled.
  Guess Type is CORE.
  Energy threshold   = 1.00e-08
  Density threshold  = 1.00e-08
  Integral threshold = 0.00e+00

  ==> Primary Basis <==

  Basis Set: TZVPP
    Blend: TZVPP
    Number of shells: 8
    Number of basis function: 14
    Number of Cartesian functions: 14
    Spherical Harmonics?: true
    Max angular momentum: 1

  ==> Pre-Iterations <==

   -------------------------------------------------------
    Irrep   Nso     Nmo     Nalpha   Nbeta   Ndocc  Nsocc
   -------------------------------------------------------
     A         14      14       0       0       0       0
   -------------------------------------------------------
    Total      14      14       2       2       2       0
   -------------------------------------------------------

  ==> Integral Setup <==

  ==> DirectJK: Integral-Direct J/K Matrices <==

    J tasked:                  Yes
    K tasked:                  Yes
    wK tasked:                  No
    Integrals threads:           1
    Schwarz Cutoff:          1E-12

  Minimum eigenvalue in the overlap matrix is 2.8954068856E-02.
  Using Symmetric Orthogonalization.

  SCF Guess: Core (One-Electron) Hamiltonian.

  ==> Iterations <==

                        Total Energy        Delta E     RMS |[F,P]|

   @RHF iter   1:   -13.72814490393247   -1.37281e+01   1.13244e-01 
   @RHF iter   2:   -14.55522761854369   -8.27083e-01   8.21546e-03 DIIS
   @RHF iter   3:   -14.56202664766101   -6.79903e-03   8.73589e-04 DIIS
   @RHF iter   4:   -14.56213156907717   -1.04921e-04   4.05236e-05 DIIS
   @RHF iter   5:   -14.56213240272726   -8.33650e-07   4.39903e-06 DIIS
   @RHF iter   6:   -14.56213241181343   -9.08616e-09   2.81445e-08 DIIS
   @RHF iter   7:   -14.56213241181375   -3.21521e-13   9.04750e-10 DIIS

  ==> Post-Iterations <==

    Orbital Energies (a.u.)
    -----------------------

    Doubly Occupied:                                                      

       1A     -4.733369     2A     -0.306831  

    Virtual:                                                              

       3A      0.053681     4A      0.053681     5A      0.053681  
       6A      0.162719     7A      0.344812     8A      0.344812  
       9A      0.344812    10A      1.897606    11A      5.638299  
      12A      5.638299    13A      5.638299    14A     12.007460  

    Final Occupation by Irrep:
              A 
    DOCC [     2 ]

  Energy converged.

  @RHF Final Energy:   -14.56213241181375

   => Energetics <=

    Nuclear Repulsion Energy =              0.0000000000000000
    One-Electron Energy =                 -19.0438664257432606
    Two-Electron Energy =                   4.4817340139295130
    DFT Exchange-Correlation Energy =       0.0000000000000000
    Empirical Dispersion Energy =           0.0000000000000000
    PCM Polarization Energy =               0.0000000000000000
    EFP Energy =                            0.0000000000000000
    Total Energy =                        -14.5621324118137476



Properties will be evaluated at   0.000000,   0.000000,   0.000000 Bohr

Properties computed using the SCF density matrix

  Nuclear Dipole Moment: (a.u.)
     X:     0.0000      Y:     0.0000      Z:     0.0000

  Electronic Dipole Moment: (a.u.)
     X:     0.0000      Y:     0.0000      Z:     0.0000

  Dipole Moment: (a.u.)
     X:     0.0000      Y:     0.0000      Z:     0.0000     Total:     0.0000

  Dipole Moment: (Debye)
     X:     0.0000      Y:     0.0000      Z:     0.0000     Total:     0.0000


*** tstop() called on copper at Tue Jul  4 23:03:18 2017
Module time:
	user time   =       0.17 seconds =       0.00 minutes
	system time =       0.00 seconds =       0.00 minutes
	total time  =          1 seconds =       0.02 minutes
Total time:
	user time   =       0.17 seconds =       0.00 minutes
	system time =       0.00 seconds =       0.00 minutes
	total time  =          1 seconds =       0.02 minutes
 MINTS: Wrapper to libmints.
   by Justin Turney

   Calculation information:
      Number of threads:                 1
      Number of atoms:                   1
      Number of AO shells:               8
      Number of SO shells:               8
      Number of primitives:             15
      Number of atomic orbitals:        14
      Number of basis functions:        14

      Number of irreps:                  1
      Integral cutoff                 1.00e-12
      Number of functions per irrep: [  14 ]

 OEINTS: Overlap, kinetic, potential, dipole, and quadrupole integrals
         stored in file 35.

      Computing two-electron integrals...done
      Computed 1056 non-zero two-electron integrals.
        Stored in file 33.

 MINTS: Wrapper to libmints.
   by Justin Turney

   Calculation information:
      Number of threads:                 1
      Number of atoms:                   1
      Number of AO shells:               8
      Number of SO shells:               8
      Number of primitives:             15
      Number of atomic orbitals:        14
      Number of basis functions:        14

      Number of irreps:                  1
      Integral cutoff                 0.00e+00
      Number of functions per irrep: [  14 ]

 OEINTS: Overlap, kinetic, potential, dipole, and quadrupole integrals
         stored in file 35.

      Computing two-electron integrals...done
      Computed 1056 non-zero two-electron integrals.
        Stored in file 33.


         ---------------------------------------------------------
                Multi-Configurational Self-Consistent Field
                            (a 'D E T C I' module)

                 Daniel G. A. Smith, C. David Sherrill, and
                              Matt L. Leininger
         ---------------------------------------------------------


   ==> Parameters <==

    EX LEVEL       =        2      H0 BLOCKSIZE  =     1000
    VAL EX LEVEL   =        0      H0 GUESS SIZE =     1000
    H0COUPLINGSIZE =        0      H0 COUPLING   =       NO
    MAXITER        =       12      NUM PRINT     =       20
    NUM ROOTS      =        1      ICORE         =        1
    PRINT LVL      =        1      FCI           =      YES
    R CONV         = 1.00e-07      MIXED         =      YES
    E CONV         = 1.00e-06      MIXED4        =      YES
    R4S            =       NO      REPL OTF      =       NO
    DIAG METHOD    =      SEM      FOLLOW ROOT   =        0
    PRECONDITIONER = DAVIDSON      UPDATE        = DAVIDSON
    S              =   0.0000      Ms0           =      YES
    GUESS VECTOR   =  H0BLOCK      OPENTYPE      =     NONE
    COLLAPSE SIZE  =        1      HD AVG        = EVANGELISTI
    MAX NUM VECS   =       13      REF SYM       =     AUTO
    IOPEN        =       NO

    EX ALLOW       =  1  1 
    STATE AVERAGE  =  0(1.00) 

   ==> CI Orbital and Space information <==

   ------------------------------------
               Space    Total     A
   ------------------------------------
                 Nso       14    14
                 Nmo       14    14
               Ndocc        2     2
               Nsocc        0     0
   ------------------------------------
               MCSCF Spaces
   ------------------------------------
         Frozen DOCC        0     0
     Restricted DOCC        1     1
              Active        4     4
     Restricted UOCC        9     9
         Frozen UOCC        0     0
   ------------------------------------

   ==> Setting up CI strings <==

    There are 4 alpha and 4 beta strings
    The CI space requires 16 (1.60E+01) determinants and 1 blocks

   ==> Setting up MCSCF integrals <==

  ==> DirectJK: Integral-Direct J/K Matrices <==

    J tasked:                  Yes
    K tasked:                  Yes
    wK tasked:                  No
    Integrals threads:           1
    Schwarz Cutoff:          1E-12


   ==> Starting MCSCF iterations <==

        Iter         Total Energy       Delta E   Orb RMS    CI RMS  NCI NORB
   @MCSCF  1:    -14.584262073494   -2.2130e-02  5.51e-03  4.76e-15    1    1  Initial CI
   @MCSCF  2:    -14.603506924319   -1.9245e-02  5.67e-03  1.76e-16    2    1  TS
   @MCSCF  3:    -14.605086163719   -1.5792e-03  2.44e-03  7.81e-16    1    1  TS
   @MCSCF  4:    -14.605333908662   -2.4774e-04  9.96e-04  1.38e-15    1    1  TS, DIIS
   @MCSCF  5:    -14.605373833660   -3.9925e-05  4.02e-04  1.13e-15    1    1  TS, DIIS
   @MCSCF  6:    -14.605381256220   -7.4226e-06  7.60e-05  1.15e-15    1    1  TS, DIIS
   @MCSCF  7:    -14.605381529908   -2.7369e-07  1.24e-06  2.03e-15    1    1  TS, DIIS
   @MCSCF  8:    -14.605381527565    2.3430e-09  7.09e-06  2.17e-15    1    1  TS, DIIS

          @MCSCF has converged!

   @MCSCF Final Energy:  -14.605381527564786

   ==> Energetics <==

    SCF energy =          -14.562132411813748
    Total MCSCF energy =  -14.605381527564786

   ==> MCSCF root 0 information <==

    MCSCF Root 0 energy =   -14.605381527564786

   Active Space Natural occupation numbers:

         A   1.801205         A   0.066265         A   0.066265
         A   0.066265

   The 16 most important determinants:

    *   1    0.949001  (    0,    0)  2AX 
    *   2   -0.182023  (    2,    2)  4AX 
    *   3   -0.182023  (    3,    3)  5AX 
    *   4   -0.182023  (    1,    1)  3AX 



Properties will be evaluated at   0.000000,   0.000000,   0.000000 Bohr

Properties computed using the CASSCF density matrix

  Nuclear Dipole Moment: (a.u.)
     X:     0.0000      Y:     0.0000      Z:     0.0000

  Electronic Dipole Moment: (a.u.)
     X:     0.0000      Y:     0.0000      Z:     0.0000

  Dipole Moment: (a.u.)
     X:     0.0000      Y:     0.0000      Z:     0.0000     Total:     0.0000

  Dipole Moment: (Debye)
     X:     0.0000      Y:     0.0000      Z:     0.0000     Total:     0.0000


*** Psi4 exiting successfully. Buy a developer a beer!
