
    -----------------------------------------------------------------------
          Psi4: An Open-Source Ab Initio Electronic Structure Package
                               Psi4 1.1 release

                         Git: Rev {HEAD} add49b9 


    R. M. Parrish, L. A. Burns, D. G. A. Smith, A. C. Simmonett,
    A. E. DePrince III, E. G. Hohenstein, U. Bozkaya, A. Yu. Sokolov,
    R. Di Remigio, R. M. Richard, J. F. Gonthier, A. M. James,
    H. R. McAlexander, A. Kumar, M. Saitow, X. Wang, B. P. Pritchard,
    P. Verma, H. F. Schaefer III, K. Patkowski, R. A. King, E. F. Valeev,
    F. A. Evangelista, J. M. Turney, T. D. Crawford, and C. D. Sherrill,
    J. Chem. Theory Comput. in press (2017).
    (doi: 10.1021/acs.jctc.7b00174)

    -----------------------------------------------------------------------


    Psi4 started on: Tuesday, 04 July 2017 10:56PM

    Process ID:  16568
    PSIDATADIR: /media/Backup/opt/apps/python/psi4conda/share/psi4
    Memory:     500.0 MiB
    Threads:    1
    
  ==> Input File <==

--------------------------------------------------------------------------
# -*- mode: python -*-

molecule {
    Be 0.0 0.0 0.0

    symmetry c1
}

set {
    reference rhf
    scf_type direct
    df_scf_guess false
    # guess gwh
    basis tzvpp
}

energy('hf')
--------------------------------------------------------------------------

*** tstart() called on copper
*** at Tue Jul  4 22:56:18 2017

   => Loading Basis Set <=

    Name: TZVPP
    Role: ORBITAL
    Keyword: BASIS
    atoms 1 entry BE         line     3 file /home/eric/Chemistry/mcscf_canonical_examples/beryllium_atom/casscf_2_4_singlet_ss_0/tzvpp.gbs 

    There are an even number of electrons - assuming singlet.
    Specify the multiplicity in the molecule input block.


         ---------------------------------------------------------
                                   SCF
            by Justin Turney, Rob Parrish, and Andy Simmonett
                              RHF Reference
                        1 Threads,    500 MiB Core
         ---------------------------------------------------------

  ==> Geometry <==

    Molecular point group: c1
    Geometry (in Angstrom), charge = 0, multiplicity = 1:

       Center              X                  Y                   Z               Mass       
    ------------   -----------------  -----------------  -----------------  -----------------
          BE          0.000000000000     0.000000000000     0.000000000000     9.012182201000

  Running in c1 symmetry.

  Rotational constants: A = ************  B = ************  C = ************ [cm^-1]
  Rotational constants: A = ************  B = ************  C = ************ [MHz]
  Nuclear repulsion =    0.000000000000000

  Charge       = 0
  Multiplicity = 1
  Electrons    = 4
  Nalpha       = 2
  Nbeta        = 2

  ==> Algorithm <==

  SCF Algorithm Type is DIRECT.
  DIIS enabled.
  MOM disabled.
  Fractional occupation disabled.
  Guess Type is CORE.
  Energy threshold   = 1.00e-06
  Density threshold  = 1.00e-06
  Integral threshold = 0.00e+00

  ==> Primary Basis <==

  Basis Set: TZVPP
    Blend: TZVPP
    Number of shells: 8
    Number of basis function: 14
    Number of Cartesian functions: 14
    Spherical Harmonics?: true
    Max angular momentum: 1

  ==> Pre-Iterations <==

   -------------------------------------------------------
    Irrep   Nso     Nmo     Nalpha   Nbeta   Ndocc  Nsocc
   -------------------------------------------------------
     A         14      14       0       0       0       0
   -------------------------------------------------------
    Total      14      14       2       2       2       0
   -------------------------------------------------------

  ==> Integral Setup <==

  ==> DirectJK: Integral-Direct J/K Matrices <==

    J tasked:                  Yes
    K tasked:                  Yes
    wK tasked:                  No
    Integrals threads:           1
    Schwarz Cutoff:          1E-12

  Minimum eigenvalue in the overlap matrix is 2.8954068856E-02.
  Using Symmetric Orthogonalization.

  SCF Guess: Core (One-Electron) Hamiltonian.

  ==> Iterations <==

                        Total Energy        Delta E     RMS |[F,P]|

   @RHF iter   1:   -13.72814490393247   -1.37281e+01   1.13244e-01 
   @RHF iter   2:   -14.55522761854369   -8.27083e-01   8.21546e-03 DIIS
   @RHF iter   3:   -14.56202664766101   -6.79903e-03   8.73589e-04 DIIS
   @RHF iter   4:   -14.56213156907717   -1.04921e-04   4.05236e-05 DIIS
   @RHF iter   5:   -14.56213240272726   -8.33650e-07   4.39903e-06 DIIS
   @RHF iter   6:   -14.56213241181343   -9.08616e-09   2.81445e-08 DIIS

  ==> Post-Iterations <==

    Orbital Energies (a.u.)
    -----------------------

    Doubly Occupied:                                                      

       1A     -4.733369     2A     -0.306831  

    Virtual:                                                              

       3A      0.053681     4A      0.053681     5A      0.053681  
       6A      0.162719     7A      0.344812     8A      0.344812  
       9A      0.344812    10A      1.897607    11A      5.638299  
      12A      5.638299    13A      5.638299    14A     12.007460  

    Final Occupation by Irrep:
              A 
    DOCC [     2 ]

  Energy converged.

  @RHF Final Energy:   -14.56213241181343

   => Energetics <=

    Nuclear Repulsion Energy =              0.0000000000000000
    One-Electron Energy =                 -19.0438675911518231
    Two-Electron Energy =                   4.4817351793383962
    DFT Exchange-Correlation Energy =       0.0000000000000000
    Empirical Dispersion Energy =           0.0000000000000000
    PCM Polarization Energy =               0.0000000000000000
    EFP Energy =                            0.0000000000000000
    Total Energy =                        -14.5621324118134261



Properties will be evaluated at   0.000000,   0.000000,   0.000000 Bohr

Properties computed using the SCF density matrix

  Nuclear Dipole Moment: (a.u.)
     X:     0.0000      Y:     0.0000      Z:     0.0000

  Electronic Dipole Moment: (a.u.)
     X:     0.0000      Y:     0.0000      Z:     0.0000

  Dipole Moment: (a.u.)
     X:     0.0000      Y:     0.0000      Z:     0.0000     Total:     0.0000

  Dipole Moment: (Debye)
     X:     0.0000      Y:     0.0000      Z:     0.0000     Total:     0.0000


*** tstop() called on copper at Tue Jul  4 22:56:18 2017
Module time:
	user time   =       0.24 seconds =       0.00 minutes
	system time =       0.00 seconds =       0.00 minutes
	total time  =          0 seconds =       0.00 minutes
Total time:
	user time   =       0.24 seconds =       0.00 minutes
	system time =       0.00 seconds =       0.00 minutes
	total time  =          0 seconds =       0.00 minutes

*** Psi4 exiting successfully. Buy a developer a beer!
